! Sonnet Data File
! From: emclient Version : 13.56
! From Project: Coupling6_rescale2_full_23pH
! Data is De-embedded 
! Data File Written: 06/26/2014 14:05:29
!< HDATE 06/18/2014 12:50:38
!< MDATE 06/18/2014 13:05:18
# GHZ S RI R 0.159000
1.300000000000000 0.2879068544125 -0.182283012463 0.5062670590543 0.7921970786783 0.5062670590543 0.7921970786783 0.2863561350650 -0.184709548645
!< P1 F=1.3 Eeff=(81.3489129 0.0) Z0=(0.16150839 0.0) R=0.0 C=-40.791935 
!< P2 F=1.3 Eeff=(81.3489129 0.0) Z0=(0.16150839 0.0) R=0.0 C=-40.791935 
1.310000000000000 0.2597480565253 -0.213018730182 0.6008898700692 0.7253174007091 0.6008898700692 0.7253174007091 0.2576161356795 -0.215592112366
!< P1 F=1.31 Eeff=(81.6229977 0.0) Z0=(0.1613256 0.0) R=0.0 C=-41.560316 
!< P2 F=1.31 Eeff=(81.6229977 0.0) Z0=(0.1613256 0.0) R=0.0 C=-41.560316 
1.320000000000000 0.2295994852180 -0.239356713849 0.6845009630897 0.6491924764291 0.6845009630898 0.6491924764290 0.2268730086705 -0.241942551061
!< P1 F=1.32 Eeff=(81.9005066 0.0) Z0=(0.16114353 0.0) R=0.0 C=-42.338506 
!< P2 F=1.32 Eeff=(81.9005066 0.0) Z0=(0.16114353 0.0) R=0.0 C=-42.338506 
1.330000000000000 0.1977145683786 -0.261731538050 0.7573383455914 0.5646628921207 0.7573383455914 0.5646628921207 0.1944103789631 -0.264195104251
!< P1 F=1.33 Eeff=(82.1814713 0.0) Z0=(0.16096226 0.0) R=0.0 C=-43.126573 
!< P2 F=1.33 Eeff=(82.1814713 0.0) Z0=(0.16096226 0.0) R=0.0 C=-43.126573 
1.340000000000000 0.1643466098451 -0.280361192535 0.8191149727840 0.4726927701099 0.8191149727840 0.4726927701100 0.1605109671620 -0.282574655388
!< P1 F=1.34 Eeff=(82.4659236 0.0) Z0=(0.16078188 0.0) R=0.0 C=-43.924588 
!< P2 F=1.34 Eeff=(82.4659236 0.0) Z0=(0.16078188 0.0) R=0.0 C=-43.924588 
1.350000000000000 0.1297416962354 -0.295374903102 0.8693502059456 0.3743674375501 0.8693502059456 0.3743674375501 0.1254484637727 -0.297223693641
!< P1 F=1.35 Eeff=(82.7538955 0.0) Z0=(0.16060245 0.0) R=0.0 C=-44.732615 
!< P2 F=1.35 Eeff=(82.7538955 0.0) Z0=(0.16060245 0.0) R=0.0 C=-44.732615 
1.360000000000000 0.0941260672065 -0.306854155833 0.9075248962528 0.2708862735562 0.9075248962527 0.2708862735562 0.0894736721612 -0.308242844961
!< P1 F=1.36 Eeff=(83.0454192 0.0) Z0=(0.16042407 0.0) R=0.0 C=-45.550722 
!< P2 F=1.36 Eeff=(83.0454192 0.0) Z0=(0.16042407 0.0) R=0.0 C=-45.550722 
1.370000000000000 0.0577096646747 -0.314874208441 0.9331526342436 0.1635542376994 0.9331526342436 0.1635542376994 0.0528170294501 -0.315731743634
!< P1 F=1.37 Eeff=(83.3405273 0.0) Z0=(0.16024682 0.0) R=0.0 C=-46.378972 
!< P2 F=1.37 Eeff=(83.3405273 0.0) Z0=(0.16024682 0.0) R=0.0 C=-46.378972 
1.380000000000000 0.0206630184447 -0.319451026347 0.9458511739752 0.0537553543809 0.9458511739752 0.0537553543810 0.0156637107693 -0.319735150914
!< P1 F=1.38 Eeff=(83.6392523 0.0) Z0=(0.16007078 0.0) R=0.0 C=-47.217427 
!< P2 F=1.38 Eeff=(83.6392523 0.0) Z0=(0.16007078 0.0) R=0.0 C=-47.217427 
1.390000000000000 -0.016850472309 -0.320590626890 0.9453491059967 -0.057033142341 0.9453491059967 -0.057033142341 -0.021814083011 -0.320291171044
!< P1 F=1.39 Eeff=(83.9416268 0.0) Z0=(0.15989605 0.0) R=0.0 C=-48.066148 
!< P2 F=1.39 Eeff=(83.9416268 0.0) Z0=(0.15989605 0.0) R=0.0 C=-48.066148 
1.400000000000000 -0.054685248200 -0.318259720841 0.9315230998214 -0.167287143015 0.9315230998215 -0.167287143014 -0.059469504781 -0.317400542346
!< P1 F=1.4 Eeff=(84.2476838 0.0) Z0=(0.15972271 0.0) R=0.0 C=-48.925193 
!< P2 F=1.4 Eeff=(84.2476838 0.0) Z0=(0.15972271 0.0) R=0.0 C=-48.925193 
1.410000000000000 -0.092696412000 -0.312384038431 0.9044093187907 -0.275440323523 0.9044093187907 -0.275440323523 -0.097164027116 -0.311023414068
!< P1 F=1.41 Eeff=(84.5574561 0.0) Z0=(0.15955086 0.0) R=0.0 C=-49.794616 
!< P2 F=1.41 Eeff=(84.5574561 0.0) Z0=(0.15955086 0.0) R=0.0 C=-49.794616 
1.420000000000000 -0.130732509511 -0.302854021762 0.8642091054706 -0.379909297706 0.8642091054704 -0.379909297706 -0.134760430915 -0.301083333647
!< P1 F=1.42 Eeff=(84.8709772 0.0) Z0=(0.15938059 0.0) R=0.0 C=-50.674474 
!< P2 F=1.42 Eeff=(84.8709772 0.0) Z0=(0.15938059 0.0) R=0.0 C=-50.674474 
1.430000000000000 -0.168641614824 -0.289535229750 0.8112770993867 -0.479122974292 0.8112770993866 -0.479122974292 -0.172128794411 -0.287475775764
!< P1 F=1.43 Eeff=(85.1882802 0.0) Z0=(0.15921201 0.0) R=0.0 C=-51.564818 
!< P2 F=1.43 Eeff=(85.1882802 0.0) Z0=(0.15921201 0.0) R=0.0 C=-51.564818 
1.440000000000000 -0.206352025501 -0.272309215893 0.7460310147799 -0.571580490830 0.7460310147799 -0.571580490830 -0.209226502117 -0.270106901616
!< P1 F=1.44 Eeff=(85.5093982 0.0) Z0=(0.15904521 0.0) R=0.0 C=-52.465695 
!< P2 F=1.44 Eeff=(85.5093982 0.0) Z0=(0.15904521 0.0) R=0.0 C=-52.465695 
1.450000000000000 -0.244592559720 -0.251330335413 0.6682215181506 -0.656115496625 0.6682215181506 -0.656115496625 -0.246816973452 -0.249146220893
!< P1 F=1.45 Eeff=(85.8343649 0.0) Z0=(0.15888031 0.0) R=0.0 C=-53.377152 
!< P2 F=1.45 Eeff=(85.8343649 0.0) Z0=(0.15888031 0.0) R=0.0 C=-53.377152 
1.451000000000000 -0.248626673820 -0.249081999123 0.6595906038528 -0.664140926376 0.6595906038530 -0.664140926376 -0.250785399148 -0.246908381380
!< P1 F=1.451 Eeff=(85.8670745 0.0) Z0=(0.15886393 0.0) R=0.0 C=-53.468881 
!< P2 F=1.451 Eeff=(85.8670745 0.0) Z0=(0.15886393 0.0) R=0.0 C=-53.468881 
1.452000000000000 -0.252779831387 -0.246832226055 0.6507270962316 -0.672108960850 0.6507270962316 -0.672108960850 -0.254872840301 -0.244670444174
!< P1 F=1.452 Eeff=(85.899823 0.0) Z0=(0.15884756 0.0) R=0.0 C=-53.560717 
!< P2 F=1.452 Eeff=(85.899823 0.0) Z0=(0.15884756 0.0) R=0.0 C=-53.560717 
1.453000000000000 -0.257115044283 -0.244600660803 0.6415684767278 -0.680038425684 0.6415684767278 -0.680038425684 -0.259142286815 -0.242451860059
!< P1 F=1.453 Eeff=(85.9326103 0.0) Z0=(0.15883122 0.0) R=0.0 C=-53.652658 
!< P2 F=1.453 Eeff=(85.9326103 0.0) Z0=(0.15883122 0.0) R=0.0 C=-53.652658 
1.454000000000000 -0.261744008029 -0.242422268692 0.6320038875438 -0.687962647266 0.6320038875438 -0.687962647266 -0.263705416878 -0.240287193179
!< P1 F=1.454 Eeff=(85.9654366 0.0) Z0=(0.1588149 0.0) R=0.0 C=-53.744707 
!< P2 F=1.454 Eeff=(85.9654366 0.0) Z0=(0.1588149 0.0) R=0.0 C=-53.744707 
1.455000000000000 -0.266884004461 -0.240363652072 0.6218167276247 -0.695946980863 0.6218167276248 -0.695946980863 -0.268779328029 -0.238242376371
!< P1 F=1.455 Eeff=(85.9983018 0.0) Z0=(0.1587986 0.0) R=0.0 C=-53.836861 
!< P2 F=1.455 Eeff=(85.9983018 0.0) Z0=(0.1587986 0.0) R=0.0 C=-53.836861 
1.456000000000000 -0.273020884953 -0.238570707865 0.6105220518974 -0.704135241182 0.6105220518975 -0.704135241182 -0.274849578402 -0.236461615329
!< P1 F=1.456 Eeff=(86.031206 0.0) Z0=(0.15878232 0.0) R=0.0 C=-53.929122 
!< P2 F=1.456 Eeff=(86.031206 0.0) Z0=(0.15878232 0.0) R=0.0 C=-53.929122 
1.457000000000000 -0.281507146442 -0.237433229335 0.5967687285116 -0.712913930836 0.5967687285116 -0.712913930836 -0.283267387304 -0.235330404284
!< P1 F=1.457 Eeff=(86.0641493 0.0) Z0=(0.15876606 0.0) R=0.0 C=-54.02149 
!< P2 F=1.457 Eeff=(86.0641493 0.0) Z0=(0.15876606 0.0) R=0.0 C=-54.02149 
1.458000000000000 -0.298038238397 -0.238450178697 0.5748646909848 -0.723771585372 0.5748646909848 -0.723771585372 -0.299722905490 -0.236329133185
!< P1 F=1.458 Eeff=(86.0971316 0.0) Z0=(0.15874982 0.0) R=0.0 C=-54.113964 
!< P2 F=1.458 Eeff=(86.0971316 0.0) Z0=(0.15874982 0.0) R=0.0 C=-54.113964 
1.458100000000000 -0.300945722340 -0.238863111024 0.5714145532391 -0.725163081481 0.5714145532391 -0.725163081481 -0.302621593582 -0.236736318931
!< P1 F=1.4581 Eeff=(86.100432 0.0) Z0=(0.1587482 0.0) R=0.0 C=-54.123217 
!< P2 F=1.4581 Eeff=(86.100432 0.0) Z0=(0.1587482 0.0) R=0.0 C=-54.123217 
1.458200000000000 -0.304342658184 -0.239387916139 0.5674741280237 -0.726665043909 0.5674741280236 -0.726665043909 -0.306009222532 -0.237253838133
!< P1 F=1.4582 Eeff=(86.1037327 0.0) Z0=(0.15874657 0.0) R=0.0 C=-54.132472 
!< P2 F=1.4582 Eeff=(86.1037327 0.0) Z0=(0.15874657 0.0) R=0.0 C=-54.132472 
1.458300000000000 -0.308383881067 -0.240053617281 0.5628886814524 -0.728306237116 0.5628886814523 -0.728306237116 -0.310040445645 -0.237910233776
!< P1 F=1.4583 Eeff=(86.1070339 0.0) Z0=(0.15874495 0.0) R=0.0 C=-54.141727 
!< P2 F=1.4583 Eeff=(86.1070339 0.0) Z0=(0.15874495 0.0) R=0.0 C=-54.141727 
1.458400000000000 -0.313297032893 -0.240899496120 0.5574307013682 -0.730125615988 0.5574307013682 -0.730125615988 -0.314942622637 -0.238744094162
!< P1 F=1.4584 Eeff=(86.1103354 0.0) Z0=(0.15874333 0.0) R=0.0 C=-54.150983 
!< P2 F=1.4584 Eeff=(86.1103354 0.0) Z0=(0.15874333 0.0) R=0.0 C=-54.150983 
1.458500000000000 -0.319430935114 -0.241979427482 0.5507515447125 -0.732176597799 0.5507515447126 -0.732176597799 -0.321064133806 -0.239808230917
!< P1 F=1.4585 Eeff=(86.1136374 0.0) Z0=(0.15874171 0.0) R=0.0 C=-54.160241 
!< P2 F=1.4585 Eeff=(86.1136374 0.0) Z0=(0.15874171 0.0) R=0.0 C=-54.160241 
1.458600000000000 -0.327348405075 -0.243367727786 0.5422888312147 -0.734532500511 0.5422888312147 -0.734532500511 -0.328967073489 -0.241175234618
!< P1 F=1.4586 Eeff=(86.1169397 0.0) Z0=(0.15874008 0.0) R=0.0 C=-54.169499 
!< P2 F=1.4586 Eeff=(86.1169397 0.0) Z0=(0.15874008 0.0) R=0.0 C=-54.169499 
1.458700000000000 -0.338018918869 -0.245163850951 0.5310737908806 -0.737291343577 0.5310737908806 -0.737291343577 -0.339619523971 -0.242941726067
!< P1 F=1.4587 Eeff=(86.1202424 0.0) Z0=(0.15873846 0.0) R=0.0 C=-54.178759 
!< P2 F=1.4587 Eeff=(86.1202424 0.0) Z0=(0.15873846 0.0) R=0.0 C=-54.178759 
1.458800000000000 -0.353263725770 -0.247482532473 0.5152865218688 -0.740565281765 0.5152865218688 -0.740565281765 -0.354839971285 -0.245217166207
!< P1 F=1.4588 Eeff=(86.1235455 0.0) Z0=(0.15873684 0.0) R=0.0 C=-54.18802 
!< P2 F=1.4588 Eeff=(86.1235455 0.0) Z0=(0.15873684 0.0) R=0.0 C=-54.18802 
1.458900000000000 -0.376940981572 -0.250347118361 0.4910721289192 -0.744372205915 0.4910721289193 -0.744372205915 -0.378480103532 -0.248014101395
!< P1 F=1.4589 Eeff=(86.1268491 0.0) Z0=(0.15873522 0.0) R=0.0 C=-54.197282 
!< P2 F=1.4589 Eeff=(86.1268491 0.0) Z0=(0.15873522 0.0) R=0.0 C=-54.197282 
1.459000000000000 -0.418810557394 -0.252929104767 0.4486801055517 -0.747870809605 0.4486801055518 -0.747870809605 -0.420280936221 -0.250478241913
!< P1 F=1.459 Eeff=(86.1301529 0.0) Z0=(0.1587336 0.0) R=0.0 C=-54.206544 
!< P2 F=1.459 Eeff=(86.1301529 0.0) Z0=(0.1587336 0.0) R=0.0 C=-54.206544 
1.459100000000000 -0.511734107077 -0.246568462662 0.3552887292370 -0.742362523133 0.3552887292371 -0.742362523133 -0.513024295630 -0.243872661893
!< P1 F=1.4591 Eeff=(86.1334572 0.0) Z0=(0.15873198 0.0) R=0.0 C=-54.215808 
!< P2 F=1.4591 Eeff=(86.1334572 0.0) Z0=(0.15873198 0.0) R=0.0 C=-54.215808 
1.459110000000000 -0.527437378053 -0.243781849647 0.3395470444832 -0.739653991132 0.3395470444832 -0.739653991132 -0.528692688960 -0.241047336896
!< P1 F=1.45911 Eeff=(86.1337877 0.0) Z0=(0.15873182 0.0) R=0.0 C=-54.216735 
!< P2 F=1.45911 Eeff=(86.1337877 0.0) Z0=(0.15873182 0.0) R=0.0 C=-54.216735 
1.459120000000000 -0.545168253640 -0.240014802010 0.3217808284944 -0.735963021117 0.3217808284944 -0.735963021117 -0.546382518211 -0.237237589254
!< P1 F=1.45912 Eeff=(86.1341181 0.0) Z0=(0.15873165 0.0) R=0.0 C=-54.217661 
!< P2 F=1.45912 Eeff=(86.1341181 0.0) Z0=(0.15873165 0.0) R=0.0 C=-54.217661 
1.459130000000000 -0.565303112306 -0.234918640529 0.3016145081796 -0.730940703480 0.3016145081795 -0.730940703480 -0.566468552342 -0.232094281832
!< P1 F=1.45913 Eeff=(86.1344486 0.0) Z0=(0.15873149 0.0) R=0.0 C=-54.218588 
!< P2 F=1.45913 Eeff=(86.1344486 0.0) Z0=(0.15873149 0.0) R=0.0 C=-54.218588 
1.459140000000000 -0.588299283043 -0.227997483798 0.2785918317492 -0.724090941965 0.2785918317493 -0.724090941965 -0.589405963308 -0.225121099555
!< P1 F=1.45914 Eeff=(86.1347791 0.0) Z0=(0.15873133 0.0) R=0.0 C=-54.219514 
!< P2 F=1.45914 Eeff=(86.1347791 0.0) Z0=(0.15873133 0.0) R=0.0 C=-54.219514 
1.459150000000000 -0.614706490722 -0.218534611822 0.2521645386174 -0.714696858230 0.2521645386172 -0.714696858230 -0.615741547028 -0.215601005481
!< P1 F=1.45915 Eeff=(86.1351095 0.0) Z0=(0.15873117 0.0) R=0.0 C=-54.220441 
!< P2 F=1.45915 Eeff=(86.1351095 0.0) Z0=(0.15873117 0.0) R=0.0 C=-54.220441 
1.459160000000000 -0.645168518385 -0.205476702388 0.2216908649268 -0.701705114752 0.2216908649268 -0.701705114752 -0.646115060487 -0.202480668091
!< P1 F=1.45916 Eeff=(86.13544 0.0) Z0=(0.15873101 0.0) R=0.0 C=-54.221367 
!< P2 F=1.45916 Eeff=(86.13544 0.0) Z0=(0.15873101 0.0) R=0.0 C=-54.221367 
1.459170000000000 -0.680395668685 -0.187250280029 0.1864632847417 -0.683542617623 0.1864632847418 -0.683542617623 -0.681231215378 -0.184187308278
!< P1 F=1.45917 Eeff=(86.1357705 0.0) Z0=(0.15873084 0.0) R=0.0 C=-54.222294 
!< P2 F=1.45917 Eeff=(86.1357705 0.0) Z0=(0.15873084 0.0) R=0.0 C=-54.222294 
1.459180000000000 -0.721061480824 -0.161471715378 0.1458121841758 -0.657826749951 0.1458121841759 -0.657826749951 -0.721755772217 -0.158339443181
!< P1 F=1.45918 Eeff=(86.136101 0.0) Z0=(0.15873068 0.0) R=0.0 C=-54.22322 
!< P2 F=1.45918 Eeff=(86.136101 0.0) Z0=(0.15873068 0.0) R=0.0 C=-54.22322 
1.459190000000000 -0.767514239758 -0.124501192512 0.0993946332826 -0.620920326376 0.0993946332825 -0.620920326376 -0.768026280340 -0.121302464418
!< P1 F=1.45919 Eeff=(86.1364314 0.0) Z0=(0.15873052 0.0) R=0.0 C=-54.224147 
!< P2 F=1.45919 Eeff=(86.1364314 0.0) Z0=(0.15873052 0.0) R=0.0 C=-54.224147 
1.459200000000000 -0.819055269218 -0.070816905226 0.0479164164013 -0.567307190981 0.0479164164014 -0.567307190981 -0.819329861021 -0.067565871116
!< P1 F=1.4592 Eeff=(86.1367619 0.0) Z0=(0.15873036 0.0) R=0.0 C=-54.225073 
!< P2 F=1.4592 Eeff=(86.1367619 0.0) Z0=(0.15873036 0.0) R=0.0 C=-54.225073 
1.459210000000000 -0.872261145628 0.0076267197684 -5.190721093e-3 -0.488953355023 -5.190721097e-3 -0.488953355022 -0.872226473681 0.0108927332403
!< P1 F=1.45921 Eeff=(86.1370924 0.0) Z0=(0.1587302 0.0) R=0.0 C=-54.226 
!< P2 F=1.45921 Eeff=(86.1370924 0.0) Z0=(0.1587302 0.0) R=0.0 C=-54.226 
1.459220000000000 -0.917467681192 0.1211417971739 -0.050256399500 -0.375568919448 -0.050256399500 -0.375568919448 -0.917039575517 0.1243410551209
!< P1 F=1.45922 Eeff=(86.1374229 0.0) Z0=(0.15873003 0.0) R=0.0 C=-54.226927 
!< P2 F=1.45922 Eeff=(86.1374229 0.0) Z0=(0.15873003 0.0) R=0.0 C=-54.226927 
1.459230000000000 -0.932992440716 0.2780957404570 -0.065604892176 -0.218823816871 -0.065604892176 -0.218823816871 -0.932100164874 0.2810719088302
!< P1 F=1.45923 Eeff=(86.1377534 0.0) Z0=(0.15872987 0.0) R=0.0 C=-54.227853 
!< P2 F=1.45923 Eeff=(86.1377534 0.0) Z0=(0.15872987 0.0) R=0.0 C=-54.227853 
1.459231000000000 -0.931588455504 0.2961472627862 -0.064182496312 -0.200799291538 -0.064182496312 -0.200799291538 -0.930648208234 0.2990888901249
!< P1 F=1.459231 Eeff=(86.1377865 0.0) Z0=(0.15872986 0.0) R=0.0 C=-54.227946 
!< P2 F=1.459231 Eeff=(86.1377865 0.0) Z0=(0.15872986 0.0) R=0.0 C=-54.227946 
1.459232000000000 -0.929475568944 0.3145661763175 -0.062051288059 -0.182408676063 -0.062051288059 -0.182408676063 -0.928487528078 0.3174706643937
!< P1 F=1.459232 Eeff=(86.1378195 0.0) Z0=(0.15872984 0.0) R=0.0 C=-54.228038 
!< P2 F=1.459232 Eeff=(86.1378195 0.0) Z0=(0.15872984 0.0) R=0.0 C=-54.228038 
1.459233000000000 -0.926608389134 0.3333242678781 -0.059165953568 -0.163680223508 -0.059165953568 -0.163680223508 -0.925572888121 0.3361889396551
!< P1 F=1.459233 Eeff=(86.1378526 0.0) Z0=(0.15872982 0.0) R=0.0 C=-54.228131 
!< P2 F=1.459233 Eeff=(86.1378526 0.0) Z0=(0.15872982 0.0) R=0.0 C=-54.228131 
1.459234000000000 -0.922941696839 0.3523885808695 -0.055481354902 -0.144646920349 -0.055481354902 -0.144646920349 -0.921859237354 0.3552106898671
!< P1 F=1.459234 Eeff=(86.1378856 0.0) Z0=(0.15872981 0.0) R=0.0 C=-54.228224 
!< P2 F=1.459234 Eeff=(86.1378856 0.0) Z0=(0.15872981 0.0) R=0.0 C=-54.228224 
1.459235000000000 -0.918430959983 0.3717210141503 -0.050953053126 -0.125346901684 -0.050953053126 -0.125346901684 -0.917302225594 0.3744977537125
!< P1 F=1.459235 Eeff=(86.1379187 0.0) Z0=(0.15872979 0.0) R=0.0 C=-54.228316 
!< P2 F=1.459235 Eeff=(86.1379187 0.0) Z0=(0.15872979 0.0) R=0.0 C=-54.228316 
1.459236000000000 -0.913032872732 0.3912782398446 -0.045537840220 -0.105823520271 -0.045537840220 -0.105823520271 -0.911858740999 0.3940067564512
!< P1 F=1.459236 Eeff=(86.1379517 0.0) Z0=(0.15872978 0.0) R=0.0 C=-54.228409 
!< P2 F=1.459236 Eeff=(86.1379517 0.0) Z0=(0.15872978 0.0) R=0.0 C=-54.228409 
1.459237000000000 -0.906705971502 0.4110115323480 -0.039194353277 -0.086125514166 -0.039194353277 -0.086125514166 -0.905487526137 0.4136889392897
!< P1 F=1.459237 Eeff=(86.1379847 0.0) Z0=(0.15872976 0.0) R=0.0 C=-54.228502 
!< P2 F=1.459237 Eeff=(86.1379847 0.0) Z0=(0.15872976 0.0) R=0.0 C=-54.228502 
1.459238000000000 -0.899411305309 0.4308666827891 -0.031883751395 -0.066307103250 -0.031883751395 -0.066307103250 -0.898149847077 0.4334900767635
!< P1 F=1.459238 Eeff=(86.1380178 0.0) Z0=(0.15872974 0.0) R=0.0 C=-54.228594 
!< P2 F=1.459238 Eeff=(86.1380178 0.0) Z0=(0.15872974 0.0) R=0.0 C=-54.228594 
1.459239000000000 -0.891113156215 0.4507840068865 -0.023570431463 -0.046427973426 -0.023570431463 -0.046427973426 -0.889810212829 0.4533504860366
!< P1 F=1.459239 Eeff=(86.1380509 0.0) Z0=(0.15872973 0.0) R=0.0 C=-54.228687 
!< P2 F=1.459239 Eeff=(86.1380509 0.0) Z0=(0.15872973 0.0) R=0.0 C=-54.228687 
1.459240000000000 -0.881779775613 0.4706984940709 -0.014222759194 -0.026553118849 -0.014222759194 -0.026553118849 -0.880437109525 0.4732051787240
!< P1 F=1.45924 Eeff=(86.1380839 0.0) Z0=(0.15872971 0.0) R=0.0 C=-54.22878 
!< P2 F=1.45924 Eeff=(86.1380839 0.0) Z0=(0.15872971 0.0) R=0.0 C=-54.22878 
1.459240100000000 -0.880788414796 0.4726871295307 -0.013230022440 -0.024568525457 -0.013230022440 -0.024568525457 -0.879441882613 0.4751876778385
!< P1 F=1.4592401 Eeff=(86.1380872 0.0) Z0=(0.15872971 0.0) R=0.0 C=-54.228789 
!< P2 F=1.4592401 Eeff=(86.1380872 0.0) Z0=(0.15872971 0.0) R=0.0 C=-54.228789 
1.459240200000000 -0.879786405502 0.4746749612560 -0.012226647487 -0.022584750209 -0.012226647487 -0.022584750209 -0.878436027532 0.4771693448684
!< P1 F=1.4592402 Eeff=(86.1380905 0.0) Z0=(0.15872971 0.0) R=0.0 C=-54.228798 
!< P2 F=1.4592402 Eeff=(86.1380905 0.0) Z0=(0.15872971 0.0) R=0.0 C=-54.228798 
1.459240300000000 -0.878773713459 0.4766619370763 -0.011212598518 -0.020601842410 -0.011212598518 -0.020601842410 -0.877419510082 0.4791501278837
!< P1 F=1.4592403 Eeff=(86.1380938 0.0) Z0=(0.15872971 0.0) R=0.0 C=-54.228808 
!< P2 F=1.4592403 Eeff=(86.1380938 0.0) Z0=(0.15872971 0.0) R=0.0 C=-54.228808 
1.459240400000000 -0.877750336952 0.4786479411290 -0.010187877709 -0.018619924323 -0.010187877709 -0.018619924323 -0.876392329188 0.4811299106337
!< P1 F=1.4592404 Eeff=(86.1380971 0.0) Z0=(0.1587297 0.0) R=0.0 C=-54.228817 
!< P2 F=1.4592404 Eeff=(86.1380971 0.0) Z0=(0.1587297 0.0) R=0.0 C=-54.228817 
1.459240500000000 -0.876716228297 0.4806329485926 -9.152432777e-3 -0.016639012670 -9.152432777e-3 -0.016639012670 -0.875354436918 0.4831086689350
!< P1 F=1.4592405 Eeff=(86.1381004 0.0) Z0=(0.1587297 0.0) R=0.0 C=-54.228826 
!< P2 F=1.4592405 Eeff=(86.1381004 0.0) Z0=(0.1587297 0.0) R=0.0 C=-54.228826 
1.459240600000000 -0.875671391654 0.4826168343406 -8.106273574e-3 -0.014659242080 -8.106273574e-3 -0.014659242080 -0.874305838145 0.4850862772083
!< P1 F=1.4592406 Eeff=(86.1381037 0.0) Z0=(0.1587297 0.0) R=0.0 C=-54.228835 
!< P2 F=1.4592406 Eeff=(86.1381037 0.0) Z0=(0.1587297 0.0) R=0.0 C=-54.228835 
1.459240700000000 -0.874615783208 0.4845995665222 -7.049351588e-3 -0.012680636120 -7.049351588e-3 -0.012680636120 -0.873246488975 0.4870627039738
!< P1 F=1.4592407 Eeff=(86.138107 0.0) Z0=(0.1587297 0.0) R=0.0 C=-54.228845 
!< P2 F=1.4592407 Eeff=(86.138107 0.0) Z0=(0.1587297 0.0) R=0.0 C=-54.228845 
1.459240800000000 -0.873549391365 0.4865810520178 -5.981657237e-3 -0.010703291106 -5.981657237e-3 -0.010703291106 -0.872176378157 0.4890378561225
!< P1 F=1.4592408 Eeff=(86.1381103 0.0) Z0=(0.1587297 0.0) R=0.0 C=-54.228854 
!< P2 F=1.4592408 Eeff=(86.1381103 0.0) Z0=(0.1587297 0.0) R=0.0 C=-54.228854 
1.459240900000000 -0.872472195860 0.4885612151615 -4.903169122e-3 -8.727280480e-3 -4.903169122e-3 -8.727280480e-3 -0.871095485553 0.4910116582701
!< P1 F=1.4592409 Eeff=(86.1381137 0.0) Z0=(0.1587297 0.0) R=0.0 C=-54.228863 
!< P2 F=1.4592409 Eeff=(86.1381137 0.0) Z0=(0.1587297 0.0) R=0.0 C=-54.228863 
1.459241000000000 -0.871384182221 0.4905399702755 -3.813875829e-3 -6.752694963e-3 -3.813875829e-3 -6.752694963e-3 -0.870003797299 0.4929840242315
!< P1 F=1.459241 Eeff=(86.138117 0.0) Z0=(0.15872969 0.0) R=0.0 C=-54.228872 
!< P2 F=1.459241 Eeff=(86.138117 0.0) Z0=(0.15872969 0.0) R=0.0 C=-54.228872 
1.459241100000000 -0.870285323955 0.4925172544882 -2.713748459e-3 -4.779593028e-3 -2.713748459e-3 -4.779593028e-3 -0.868901286783 0.4949548917704
!< P1 F=1.4592411 Eeff=(86.1381203 0.0) Z0=(0.15872969 0.0) R=0.0 C=-54.228882 
!< P2 F=1.4592411 Eeff=(86.1381203 0.0) Z0=(0.15872969 0.0) R=0.0 C=-54.228882 
1.459241200000000 -0.869175604744 0.4944929868643 -1.602771573e-3 -2.808056873e-3 -1.602771573e-3 -2.808056873e-3 -0.867787938050 0.4969241798456
!< P1 F=1.4592412 Eeff=(86.1381236 0.0) Z0=(0.15872969 0.0) R=0.0 C=-54.228891 
!< P2 F=1.4592412 Eeff=(86.1381236 0.0) Z0=(0.15872969 0.0) R=0.0 C=-54.228891 
1.459241300000000 -0.868055010250 0.4964670838605 -4.809308712e-4 -8.381698378e-4 -4.809308712e-4 -8.381698378e-4 -0.866663737023 0.4988918050088
!< P1 F=1.4592413 Eeff=(86.1381269 0.0) Z0=(0.15872969 0.0) R=0.0 C=-54.2289 
!< P2 F=1.4592413 Eeff=(86.1381269 0.0) Z0=(0.15872969 0.0) R=0.0 C=-54.2289 
1.459241400000000 -0.866923519297 0.4984394747139 6.5179606972e-4 0.0011299997192 6.5179606972e-4 0.0011299997192 -0.865528662637 0.5008576967733
!< P1 F=1.4592414 Eeff=(86.1381302 0.0) Z0=(0.15872969 0.0) R=0.0 C=-54.228909 
!< P2 F=1.4592414 Eeff=(86.1381302 0.0) Z0=(0.15872969 0.0) R=0.0 C=-54.228909 
1.459241500000000 -0.865781117562 0.5004100772985 0.0017954207277 0.0030963649954 0.0017954207277 0.0030963649954 -0.864382701098 0.5028217726307
!< P1 F=1.4592415 Eeff=(86.1381335 0.0) Z0=(0.15872969 0.0) R=0.0 C=-54.228919 
!< P2 F=1.4592415 Eeff=(86.1381335 0.0) Z0=(0.15872969 0.0) R=0.0 C=-54.228919 
1.459241600000000 -0.864627792388 0.5023788075030 0.0029499574174 0.0050608450382 0.0029499574174 0.0050608450382 -0.863225839809 0.5047839489172
!< P1 F=1.4592416 Eeff=(86.1381368 0.0) Z0=(0.15872968 0.0) R=0.0 C=-54.228928 
!< P2 F=1.4592416 Eeff=(86.1381368 0.0) Z0=(0.15872968 0.0) R=0.0 C=-54.228928 
1.459241700000000 -0.863463525688 0.5043455912848 0.0041154233298 0.0070233644878 0.0041154233298 0.0070233644878 -0.862058060988 0.5067441515481
!< P1 F=1.4592417 Eeff=(86.1381401 0.0) Z0=(0.15872968 0.0) R=0.0 C=-54.228937 
!< P2 F=1.4592417 Eeff=(86.1381401 0.0) Z0=(0.15872968 0.0) R=0.0 C=-54.228937 
1.459241800000000 -0.862288305167 0.5063103455107 0.0052918292902 0.0089838379334 0.0052918292902 0.0089838379334 -0.860879352685 0.5087022973414
!< P1 F=1.4592418 Eeff=(86.1381434 0.0) Z0=(0.15872968 0.0) R=0.0 C=-54.228946 
!< P2 F=1.4592418 Eeff=(86.1381434 0.0) Z0=(0.15872968 0.0) R=0.0 C=-54.228946 
1.459241900000000 -0.861102108483 0.5082730042048 0.0064792021320 0.0109422074181 0.0064792021320 0.0109422074181 -0.859689692409 0.5106583209965
!< P1 F=1.4592419 Eeff=(86.1381467 0.0) Z0=(0.15872968 0.0) R=0.0 C=-54.228956 
!< P2 F=1.4592419 Eeff=(86.1381467 0.0) Z0=(0.15872968 0.0) R=0.0 C=-54.228956 
1.459242000000000 -0.859904942559 0.5102334541903 0.0076775307953 0.0128983529502 0.0076775307953 0.0128983529502 -0.858489087769 0.5126121089024
!< P1 F=1.459242 Eeff=(86.13815 0.0) Z0=(0.15872968 0.0) R=0.0 C=-54.228965 
!< P2 F=1.459242 Eeff=(86.13815 0.0) Z0=(0.15872968 0.0) R=0.0 C=-54.228965 
1.459243000000000 -0.847326956662 0.5296996045300 0.0202664334661 0.0323207232272 0.0202664334661 0.0323207232272 -0.845878128085 0.5320101831278
!< P1 F=1.459243 Eeff=(86.1381831 0.0) Z0=(0.15872966 0.0) R=0.0 C=-54.229058 
!< P2 F=1.459243 Eeff=(86.1381831 0.0) Z0=(0.15872966 0.0) R=0.0 C=-54.229058 
1.459244000000000 -0.833642197937 0.5488553236161 0.0339607417154 0.0514313871047 0.0339607417154 0.0514313871047 -0.832163136281 0.5510952685856
!< P1 F=1.459244 Eeff=(86.1382161 0.0) Z0=(0.15872965 0.0) R=0.0 C=-54.22915 
!< P2 F=1.459244 Eeff=(86.1382161 0.0) Z0=(0.15872965 0.0) R=0.0 C=-54.22915 
1.459245000000000 -0.818850370971 0.5676145225179 0.0487606245316 0.0701443175367 0.0487606245316 0.0701443175367 -0.817344057835 0.5697814206652
!< P1 F=1.459245 Eeff=(86.1382492 0.0) Z0=(0.15872963 0.0) R=0.0 C=-54.229243 
!< P2 F=1.459245 Eeff=(86.1382492 0.0) Z0=(0.15872963 0.0) R=0.0 C=-54.229243 
1.459246000000000 -0.802959599308 0.5858888655294 0.0646578469355 0.0883712733684 0.0646578469355 0.0883712733684 -0.801429248283 0.5879804766050
!< P1 F=1.459246 Eeff=(86.1382822 0.0) Z0=(0.15872961 0.0) R=0.0 C=-54.229336 
!< P2 F=1.459246 Eeff=(86.1382822 0.0) Z0=(0.15872961 0.0) R=0.0 C=-54.229336 
1.459247000000000 -0.785986878445 0.6035888221769 0.0816353007675 0.1060228198222 0.0816353007675 0.1060228198222 -0.784435923951 0.6056031048138
!< P1 F=1.459247 Eeff=(86.1383153 0.0) Z0=(0.1587296 0.0) R=0.0 C=-54.229428 
!< P2 F=1.459247 Eeff=(86.1383153 0.0) Z0=(0.1587296 0.0) R=0.0 C=-54.229428 
1.459248000000000 -0.767958479607 0.6206247093296 0.0996666137535 0.1230093893638 0.0996666137535 0.1230093893638 -0.766390561241 0.6225598476229
!< P1 F=1.459248 Eeff=(86.1383483 0.0) Z0=(0.15872958 0.0) R=0.0 C=-54.229521 
!< P2 F=1.459248 Eeff=(86.1383483 0.0) Z0=(0.15872958 0.0) R=0.0 C=-54.229521 
1.459249000000000 -0.748910175000 0.6369078616502 0.1187159178942 0.1392424374528 0.1187159178942 0.1392424374528 -0.747329119142 0.6387622892231
!< P1 F=1.459249 Eeff=(86.1383814 0.0) Z0=(0.15872956 0.0) R=0.0 C=-54.229614 
!< P2 F=1.459249 Eeff=(86.1383814 0.0) Z0=(0.15872956 0.0) R=0.0 C=-54.229614 
1.459250000000000 -0.728887290191 0.6523518576410 0.1387378056603 0.1546356792959 0.1387378056603 0.1546356792959 -0.727297087258 0.6541242808793
!< P1 F=1.45925 Eeff=(86.1384144 0.0) Z0=(0.15872955 0.0) R=0.0 C=-54.229706 
!< P2 F=1.45925 Eeff=(86.1384144 0.0) Z0=(0.15872955 0.0) R=0.0 C=-54.229706 
1.459260000000000 -0.491020293570 0.7456249649259 0.3764776682795 0.2474005825959 0.3764776682795 0.2474005825959 -0.489572857306 0.7465761410652
!< P1 F=1.45926 Eeff=(86.1387449 0.0) Z0=(0.15872939 0.0) R=0.0 C=-54.230633 
!< P2 F=1.45926 Eeff=(86.1387449 0.0) Z0=(0.15872939 0.0) R=0.0 C=-54.230633 
1.459270000000000 -0.250241104846 0.7143054865447 0.6169535083110 0.2156743608312 0.6169535083110 0.2156743608311 -0.249288555268 0.7146384784453
!< P1 F=1.45927 Eeff=(86.1390754 0.0) Z0=(0.15872922 0.0) R=0.0 C=-54.23156 
!< P2 F=1.45927 Eeff=(86.1390754 0.0) Z0=(0.15872922 0.0) R=0.0 C=-54.23156 
1.459280000000000 -0.077360806595 0.6003716817634 0.7894727431031 0.1014984592841 0.7894727431031 0.1014984592841 -0.077018267662 0.6004157202365
!< P1 F=1.45928 Eeff=(86.139406 0.0) Z0=(0.15872906 0.0) R=0.0 C=-54.232486 
!< P2 F=1.45928 Eeff=(86.139406 0.0) Z0=(0.15872906 0.0) R=0.0 C=-54.232486 
1.459290000000000 0.0177622121200 0.4654272001764 0.8842712393476 -0.033561889387 0.8842712393476 -0.033561889387 0.0175679879766 0.4654345718164
!< P1 F=1.45929 Eeff=(86.1397365 0.0) Z0=(0.1587289 0.0) R=0.0 C=-54.233413 
!< P2 F=1.45929 Eeff=(86.1397365 0.0) Z0=(0.1587289 0.0) R=0.0 C=-54.233413 
1.459300000000000 0.0580494362981 0.3438102915405 0.9242989534376 -0.155229478677 0.9242989534376 -0.155229478677 0.0574485307463 0.3439112093822
!< P1 F=1.4593 Eeff=(86.140067 0.0) Z0=(0.15872874 0.0) R=0.0 C=-54.234339 
!< P2 F=1.4593 Eeff=(86.140067 0.0) Z0=(0.15872874 0.0) R=0.0 C=-54.234339 
1.459310000000000 0.0671786125504 0.2449938216202 0.9332267844981 -0.254072489810 0.9332267844981 -0.254072489810 0.0662873694725 0.2452364639786
!< P1 F=1.45931 Eeff=(86.1403975 0.0) Z0=(0.15872858 0.0) R=0.0 C=-54.235266 
!< P2 F=1.45931 Eeff=(86.1403975 0.0) Z0=(0.15872858 0.0) R=0.0 C=-54.235266 
1.459320000000000 0.0605808486425 0.1675785823619 0.9264708307336 -0.331510451274 0.9264708307336 -0.331510451274 0.0594855620507 0.1679704985889
!< P1 F=1.45932 Eeff=(86.1407281 0.0) Z0=(0.15872841 0.0) R=0.0 C=-54.236193 
!< P2 F=1.45932 Eeff=(86.1407281 0.0) Z0=(0.15872841 0.0) R=0.0 C=-54.236193 
1.459330000000000 0.0468183731352 0.1073489772859 0.9125801613186 -0.391767387847 0.9125801613185 -0.391767387847 0.0455790835539 0.1078809998551
!< P1 F=1.45933 Eeff=(86.1410586 0.0) Z0=(0.15872825 0.0) R=0.0 C=-54.237119 
!< P2 F=1.45933 Eeff=(86.1410586 0.0) Z0=(0.15872825 0.0) R=0.0 C=-54.237119 
1.459340000000000 0.0303266904416 0.0602044203907 0.8959808572387 -0.438946492268 0.8959808572387 -0.438946492268 0.0289844776069 0.0608619786531
!< P1 F=1.45934 Eeff=(86.1413891 0.0) Z0=(0.15872809 0.0) R=0.0 C=-54.238046 
!< P2 F=1.45934 Eeff=(86.1413891 0.0) Z0=(0.15872809 0.0) R=0.0 C=-54.238046 
1.459350000000000 0.0133146027219 0.0228762731258 0.8788752662459 -0.476316768405 0.8788752662458 -0.476316768405 0.0118977023927 0.0236441788932
!< P1 F=1.45935 Eeff=(86.1417197 0.0) Z0=(0.15872793 0.0) R=0.0 C=-54.238973 
!< P2 F=1.45935 Eeff=(86.1417197 0.0) Z0=(0.15872793 0.0) R=0.0 C=-54.238973 
1.459360000000000 -3.164719140e-3 -7.075413548e-3 0.8623122652757 -0.506317568559 0.8623122652756 -0.506317568559 -4.636653975e-3 -6.211148366e-3
!< P1 F=1.45936 Eeff=(86.1420502 0.0) Z0=(0.15872777 0.0) R=0.0 C=-54.2399 
!< P2 F=1.45936 Eeff=(86.1420502 0.0) Z0=(0.15872777 0.0) R=0.0 C=-54.2399 
1.459370000000000 -0.018649096450 -0.031434708088 0.8467511544729 -0.530732091293 0.8467511544729 -0.530732091293 -0.020162169654 -0.030486334411
!< P1 F=1.45937 Eeff=(86.1423808 0.0) Z0=(0.1587276 0.0) R=0.0 C=-54.240826 