! Sonnet Data File
! From: em Version : 14.54
! From Project: S5_truegapdistance
! Data is De-embedded 
! Data File Written: 06/27/2014 05:42:39
!< HDATE 06/16/2014 22:22:56
!< MDATE 06/26/2014 15:44:37
# GHZ S RI R 50.00000
0.620000000000000 0.0052776118023 0.0019577506185 0.3673326883363 -0.930071762829 0.3673326883370 -0.930071762824 0.0051906358224 0.0021779706279
!< P1 F=0.62 Eeff=(7.06252451 -9.0439e-6) Z0=(50.4878634 3.17661e-5) R=0.00312066 C=0.16473536 
!< P2 F=0.62 Eeff=(7.06252451 -9.0439e-6) Z0=(50.4878634 3.17661e-5) R=0.00312066 C=0.16473536 
0.699616260000000 0.0059686789291 0.0012074838646 0.2207536263160 -0.975309708457 0.2207536263176 -0.975309708459 0.0059066180609 0.0014816749368
!< P1 F=0.69961626 Eeff=(7.06372288 -9.2485e-6) Z0=(50.4819443 3.12501e-5) R=0.00272395 C=0.16461802 
!< P2 F=0.69961626 Eeff=(7.06372288 -9.2485e-6) Z0=(50.4819443 3.12501e-5) R=0.00272395 C=0.16461802 
0.700000000000000 0.0059684193448 0.0012033744267 0.2200285413071 -0.975473548860 0.2200285412995 -0.975473548872 0.0059068149999 0.0014764913066
!< P1 F=0.7 Eeff=(7.06372922 -9.0169e-6) Z0=(50.4819164 3.21291e-5) R=0.00272104 C=0.16461744 
!< P2 F=0.7 Eeff=(7.06372922 -9.0169e-6) Z0=(50.4819164 3.21291e-5) R=0.00272104 C=0.16461744 
0.708381960000000 0.0027374963402 0.0011554611663 0.2010003974258 -0.979577247217 0.2010003974258 -0.979577247217 0.0029642388462 3.2407846676e-5
0.708382200000000 0.0027336291218 0.0011555110097 0.2009961514990 -0.979578130806 0.2009961514990 -0.979578130806 0.0029607052478 3.0810480648e-5
0.708382440000000 0.0027297530468 0.0011555609766 0.2009918968893 -0.979579016198 0.2009918968893 -0.979579016198 0.0029571635547 2.9209466783e-5
0.708382680000000 0.0027258680847 0.0011556110675 0.2009876335669 -0.979579903398 0.2009876335669 -0.979579903398 0.0029536137393 2.7604792546e-5
0.708382920000000 0.0027219742051 0.0011556612828 0.2009833615018 -0.979580792414 0.2009833615018 -0.979580792414 0.0029500557735 2.5996445347e-5
0.708383160000000 0.0027180713771 0.0011557116229 0.2009790806639 -0.979581683251 0.2009790806639 -0.979581683251 0.0029464896292 2.4384412554e-5
0.708383400000000 0.0027141595699 0.0011557620883 0.2009747910228 -0.979582575915 0.2009747910228 -0.979582575915 0.0029429152782 2.2768681461e-5
0.708383640000000 0.0027102387525 0.0011558126794 0.2009704925483 -0.979583470413 0.2009704925483 -0.979583470413 0.0029393326921 2.1149239307e-5
0.708383880000000 0.0027063088937 0.0011558633967 0.2009661852098 -0.979584366751 0.2009661852098 -0.979584366751 0.0029357418426 1.9526073261e-5
0.708384120000000 0.0027023699622 0.0011559142406 0.2009618689765 -0.979585264936 0.2009618689765 -0.979585264936 0.0029321427010 1.7899170465e-5
0.708384360000000 0.0026984219266 0.0011559652116 0.2009575438177 -0.979586164974 0.2009575438177 -0.979586164974 0.0029285352385 1.6268517965e-5
0.708384600000000 0.0026944647554 0.0011560163102 0.2009532097024 -0.979587066871 0.2009532097024 -0.979587066871 0.0029249194262 1.4634102776e-5
0.708384840000000 0.0026904984167 0.0011560675367 0.2009488665995 -0.979587970634 0.2009488665995 -0.979587970634 0.0029212952353 1.2995911835e-5
0.708385080000000 0.0026865228787 0.0011561188916 0.2009445144777 -0.979588876269 0.2009445144777 -0.979588876269 0.0029176626364 1.1353932027e-5
0.708385320000000 0.0026825381095 0.0011561703755 0.2009401533056 -0.979589783783 0.2009401533056 -0.979589783783 0.0029140216005 9.7081501647e-6
0.708385560000000 0.0026785440767 0.0011562219887 0.2009357830518 -0.979590693183 0.2009357830518 -0.979590693183 0.0029103720979 8.0585530117e-6
0.708385800000000 0.0026745407481 0.0011562737317 0.2009314036844 -0.979591604474 0.2009314036844 -0.979591604474 0.0029067140993 6.4051272725e-6
0.708386040000000 0.0026705280912 0.0011563256050 0.2009270151717 -0.979592517663 0.2009270151717 -0.979592517663 0.0029030475749 4.7478595819e-6
0.708386280000000 0.0026665060734 0.0011563776091 0.2009226174816 -0.979593432758 0.2009226174816 -0.979593432758 0.0028993724948 3.0867364999e-6
0.708386520000000 0.0026624746619 0.0011564297444 0.2009182105820 -0.979594349764 0.2009182105820 -0.979594349764 0.0028956888292 1.4217445543e-6
0.708386760000000 0.0026584338238 0.0011564820115 0.2009137944407 -0.979595268689 0.2009137944407 -0.979595268689 0.0028919965479 -2.471298071e-7
0.708387000000000 0.0026543835259 0.0011565344107 0.2009093690252 -0.979596189539 0.2009093690252 -0.979596189539 0.0028882956206 -1.919900203e-6
0.708387240000000 0.0026503237351 0.0011565869425 0.2009049343029 -0.979597112321 0.2009049343029 -0.979597112321 0.0028845860171 -3.596580314e-6
0.708387480000000 0.0026462544180 0.0011566396075 0.2009004902411 -0.979598037042 0.2009004902411 -0.979598037042 0.0028808677067 -5.277183875e-6
0.708387720000000 0.0026421755409 0.0011566924061 0.2008960368068 -0.979598963708 0.2008960368068 -0.979598963708 0.0028771406587 -6.961724711e-6
0.708387960000000 0.0026380870703 0.0011567453388 0.2008915739671 -0.979599892327 0.2008915739671 -0.979599892327 0.0028734048425 -8.650216669e-6
0.708388200000000 0.0026339889721 0.0011567984061 0.2008871016886 -0.979600822905 0.2008871016886 -0.979600822905 0.0028696602269 -1.034267370e-5
0.708388440000000 0.0026298812125 0.0011568516085 0.2008826199381 -0.979601755449 0.2008826199381 -0.979601755449 0.0028659067810 -1.203910981e-5
0.708388680000000 0.0026257637571 0.0011569049464 0.2008781286820 -0.979602689966 0.2008781286820 -0.979602689966 0.0028621444734 -1.373953906e-5
0.708388920000000 0.0026216365717 0.0011569584204 0.2008736278866 -0.979603626463 0.2008736278866 -0.979603626463 0.0028583732727 -1.544397559e-5
0.708389160000000 0.0026174996217 0.0011570120310 0.2008691175182 -0.979604564947 0.2008691175182 -0.979604564947 0.0028545931474 -1.715243360e-5
0.708389400000000 0.0026133528725 0.0011570657786 0.2008645975426 -0.979605505426 0.2008645975426 -0.979605505426 0.0028508040658 -1.886492736e-5
0.708389640000000 0.0026091962892 0.0011571196638 0.2008600679257 -0.979606447905 0.2008600679257 -0.979606447905 0.0028470059961 -2.058147121e-5
0.708389880000000 0.0026050298368 0.0011571736870 0.2008555286333 -0.979607392393 0.2008555286333 -0.979607392393 0.0028431989062 -2.230207955e-5
0.708390120000000 0.0026008534801 0.0011572278489 0.2008509796308 -0.979608338897 0.2008509796308 -0.979608338897 0.0028393827639 -2.402676685e-5
0.708390360000000 0.0025966671838 0.0011572821498 0.2008464208836 -0.979609287423 0.2008464208836 -0.979609287423 0.0028355575371 -2.575554766e-5
0.708390600000000 0.0025924709124 0.0011573365902 0.2008418523568 -0.979610237979 0.2008418523568 -0.979610237979 0.0028317231931 -2.748843659e-5
0.708390840000000 0.0025882646302 0.0011573911708 0.2008372740155 -0.979611190572 0.2008372740155 -0.979611190572 0.0028278796995 -2.922544832e-5
0.708391080000000 0.0025840483014 0.0011574458920 0.2008326858245 -0.979612145209 0.2008326858245 -0.979612145209 0.0028240270234 -3.096659758e-5
0.708391320000000 0.0025798218899 0.0011575007543 0.2008280877486 -0.979613101899 0.2008280877486 -0.979613101899 0.0028201651319 -3.271189923e-5
0.708391560000000 0.0025755853595 0.0011575557583 0.2008234797521 -0.979614060647 0.2008234797521 -0.979614060647 0.0028162939919 -3.446136814e-5
0.708391800000000 0.0025713386740 0.0011576109045 0.2008188617996 -0.979615021462 0.2008188617996 -0.979615021462 0.0028124135702 -3.621501927e-5
0.708392040000000 0.0025670817966 0.0011576661934 0.2008142338550 -0.979615984350 0.2008142338550 -0.979615984350 0.0028085238333 -3.797286767e-5
0.708392280000000 0.0025628146908 0.0011577216255 0.2008095958825 -0.979616949320 0.2008095958825 -0.979616949320 0.0028046247478 -3.973492843e-5
0.708392520000000 0.0025585373196 0.0011577772014 0.2008049478459 -0.979617916379 0.2008049478459 -0.979617916379 0.0028007162798 -4.150121675e-5
0.708392760000000 0.0025542496459 0.0011578329216 0.2008002897088 -0.979618885534 0.2008002897088 -0.979618885534 0.0027967983955 -4.327174786e-5
0.708393000000000 0.0025499516326 0.0011578887866 0.2007956214347 -0.979619856793 0.2007956214347 -0.979619856793 0.0027928710609 -4.504653710e-5
0.708393240000000 0.0025456432422 0.0011579447970 0.2007909429870 -0.979620830163 0.2007909429870 -0.979620830163 0.0027889342417 -4.682559987e-5
0.708393480000000 0.0025413244370 0.0011580009533 0.2007862543286 -0.979621805653 0.2007862543286 -0.979621805653 0.0027849879035 -4.860895164e-5
0.708393720000000 0.0025369951793 0.0011580572561 0.2007815554226 -0.979622783270 0.2007815554226 -0.979622783270 0.0027810320118 -5.039660797e-5
0.708393960000000 0.0025326554311 0.0011581137059 0.2007768462318 -0.979623763021 0.2007768462318 -0.979623763021 0.0027770665319 -5.218858447e-5
0.708394200000000 0.0025283051542 0.0011581703032 0.2007721267186 -0.979624744914 0.2007721267186 -0.979624744914 0.0027730914289 -5.398489686e-5
0.708394440000000 0.0025239443104 0.0011582270487 0.2007673968457 -0.979625728958 0.2007673968457 -0.979625728958 0.0027691066678 -5.578556089e-5
0.708394680000000 0.0025195728610 0.0011582839428 0.2007626565750 -0.979626715159 0.2007626565750 -0.979626715159 0.0027651122132 -5.759059243e-5
0.708394920000000 0.0025151907674 0.0011583409862 0.2007579058688 -0.979627703526 0.2007579058688 -0.979627703526 0.0027611080299 -5.940000742e-5
0.708395160000000 0.0025107979906 0.0011583981793 0.2007531446888 -0.979628694067 0.2007531446888 -0.979628694067 0.0027570940823 -6.121382184e-5
0.708395400000000 0.0025063944916 0.0011584555229 0.2007483729967 -0.979629686789 0.2007483729967 -0.979629686789 0.0027530703345 -6.303205180e-5
0.708395640000000 0.0025019802310 0.0011585130173 0.2007435907540 -0.979630681701 0.2007435907540 -0.979630681701 0.0027490367508 -6.485471346e-5
0.708395880000000 0.0024975551694 0.0011585706632 0.2007387979219 -0.979631678811 0.2007387979219 -0.979631678811 0.0027449932950 -6.668182305e-5
0.708396120000000 0.0024931192671 0.0011586284612 0.2007339944617 -0.979632678126 0.2007339944617 -0.979632678126 0.0027409399308 -6.851339690e-5
0.708396360000000 0.0024886724843 0.0011586864118 0.2007291803341 -0.979633679655 0.2007291803341 -0.979633679655 0.0027368766218 -7.034945143e-5
0.708396600000000 0.0024842147809 0.0011587445157 0.2007243555000 -0.979634683406 0.2007243555000 -0.979634683406 0.0027328033314 -7.219000310e-5
0.708396840000000 0.0024797461165 0.0011588027733 0.2007195199198 -0.979635689387 0.2007195199198 -0.979635689387 0.0027287200228 -7.403506849e-5
0.708397080000000 0.0024752664508 0.0011588611853 0.2007146735538 -0.979636697607 0.2007146735538 -0.979636697607 0.0027246266589 -7.588466422e-5
0.708397320000000 0.0024707757432 0.0011589197523 0.2007098163623 -0.979637708073 0.2007098163623 -0.979637708073 0.0027205232027 -7.773880706e-5
0.708397560000000 0.0024662739527 0.0011589784749 0.2007049483051 -0.979638720793 0.2007049483051 -0.979638720793 0.0027164096167 -7.959751379e-5
0.708397800000000 0.0024617610382 0.0011590373536 0.2007000693420 -0.979639735777 0.2007000693420 -0.979639735777 0.0027122858635 -8.146080130e-5
0.708398040000000 0.0024572369586 0.0011590963890 0.2006951794325 -0.979640753033 0.2006951794325 -0.979640753033 0.0027081519052 -8.332868660e-5
0.708398280000000 0.0024527016723 0.0011591555818 0.2006902785359 -0.979641772568 0.2006902785359 -0.979641772568 0.0027040077041 -8.520118670e-5
0.708398520000000 0.0024481551377 0.0011592149326 0.2006853666115 -0.979642794392 0.2006853666115 -0.979642794392 0.0026998532219 -8.707831878e-5
0.708398760000000 0.0024435973130 0.0011592744419 0.2006804436181 -0.979643818513 0.2006804436181 -0.979643818513 0.0026956884205 -8.896010008e-5
0.708399000000000 0.0024390281559 0.0011593341104 0.2006755095145 -0.979644844940 0.2006755095145 -0.979644844940 0.0026915132613 -9.084654788e-5
0.708399240000000 0.0024344476242 0.0011593939386 0.2006705642592 -0.979645873680 0.2006705642592 -0.979645873680 0.0026873277056 -9.273767961e-5
0.708399480000000 0.0024298556755 0.0011594539273 0.2006656078105 -0.979646904743 0.2006656078105 -0.979646904743 0.0026831317147 -9.463351274e-5
0.708399720000000 0.0024252522669 0.0011595140770 0.2006606401265 -0.979647938138 0.2006606401265 -0.979647938138 0.0026789252494 -9.653406486e-5
0.708399960000000 0.0024206373556 0.0011595743882 0.2006556611652 -0.979648973872 0.2006556611652 -0.979648973872 0.0026747082706 -9.843935363e-5
0.708400200000000 0.0024160108984 0.0011596348618 0.2006506708842 -0.979650011956 0.2006506708842 -0.979650011956 0.0026704807387 -1.003493968e-4
0.708400440000000 0.0024113728519 0.0011596954982 0.2006456692410 -0.979651052397 0.2006456692410 -0.979651052397 0.0026662426141 -1.022642122e-4
0.708400680000000 0.0024067231725 0.0011597562982 0.2006406561930 -0.979652095205 0.2006406561930 -0.979652095205 0.0026619938570 -1.041838178e-4
0.708400920000000 0.0024020618166 0.0011598172622 0.2006356316970 -0.979653140388 0.2006356316970 -0.979653140388 0.0026577344273 -1.061082315e-4
0.708401160000000 0.0023973887399 0.0011598783911 0.2006305957100 -0.979654187956 0.2006305957100 -0.979654187956 0.0026534642848 -1.080374716e-4
0.708401400000000 0.0023927038984 0.0011599396854 0.2006255481886 -0.979655237917 0.2006255481886 -0.979655237917 0.0026491833890 -1.099715562e-4
0.708401640000000 0.0023880072475 0.0011600011458 0.2006204890892 -0.979656290280 0.2006204890892 -0.979656290280 0.0026448916994 -1.119105035e-4
0.708401880000000 0.0023832987425 0.0011600627729 0.2006154183680 -0.979657345055 0.2006154183680 -0.979657345055 0.0026405891749 -1.138543321e-4
0.708402120000000 0.0023785783385 0.0011601245673 0.2006103359809 -0.979658402250 0.2006103359809 -0.979658402250 0.0026362757747 -1.158030603e-4
0.708402360000000 0.0023738459904 0.0011601865298 0.2006052418837 -0.979659461875 0.2006052418837 -0.979659461875 0.0026319514573 -1.177567067e-4
0.708402600000000 0.0023691016528 0.0011602486609 0.2006001360319 -0.979660523939 0.2006001360319 -0.979660523939 0.0026276161814 -1.197152900e-4
0.708402840000000 0.0023643452801 0.0011603109614 0.2005950183807 -0.979661588451 0.2005950183807 -0.979661588451 0.0026232699052 -1.216788290e-4
0.708403080000000 0.0023595768265 0.0011603734319 0.2005898888853 -0.979662655421 0.2005898888853 -0.979662655421 0.0026189125869 -1.236473424e-4
0.708403320000000 0.0023547962459 0.0011604360731 0.2005847475004 -0.979663724857 0.2005847475004 -0.979663724857 0.0026145441842 -1.256208494e-4
0.708403560000000 0.0023500034920 0.0011604988856 0.2005795941807 -0.979664796770 0.2005795941807 -0.979664796770 0.0026101646550 -1.275993688e-4
0.708403800000000 0.0023451985183 0.0011605618701 0.2005744288806 -0.979665871168 0.2005744288806 -0.979665871168 0.0026057739566 -1.295829199e-4
0.708404040000000 0.0023403812779 0.0011606250273 0.2005692515541 -0.979666948062 0.2005692515541 -0.979666948062 0.0026013720463 -1.315715219e-4
0.708404280000000 0.0023355517239 0.0011606883579 0.2005640621552 -0.979668027461 0.2005640621552 -0.979668027461 0.0025969588811 -1.335651941e-4
0.708404520000000 0.0023307098091 0.0011607518626 0.2005588606376 -0.979669109373 0.2005588606376 -0.979669109373 0.0025925344179 -1.355639560e-4
0.708404760000000 0.0023258554858 0.0011608155420 0.2005536469546 -0.979670193810 0.2005536469546 -0.979670193810 0.0025880986131 -1.375678271e-4
0.708405000000000 0.0023209887065 0.0011608793969 0.2005484210595 -0.979671280780 0.2005484210595 -0.979671280780 0.0025836514232 -1.395768270e-4
0.708405240000000 0.0023161094231 0.0011609434279 0.2005431829052 -0.979672370294 0.2005431829052 -0.979672370294 0.0025791928042 -1.415909756e-4
0.708405480000000 0.0023112175873 0.0011610076357 0.2005379324445 -0.979673462361 0.2005379324445 -0.979673462361 0.0025747227121 -1.436102925e-4
0.708405720000000 0.0023063131507 0.0011610720211 0.2005326696297 -0.979674556991 0.2005326696297 -0.979674556991 0.0025702411026 -1.456347978e-4
0.708405960000000 0.0023013960646 0.0011611365847 0.2005273944132 -0.979675654194 0.2005273944132 -0.979675654194 0.0025657479311 -1.476645116e-4
0.708406200000000 0.0022964662800 0.0011612013273 0.2005221067468 -0.979676753980 0.2005221067468 -0.979676753980 0.0025612431529 -1.496994539e-4
0.708406440000000 0.0022915237476 0.0011612662496 0.2005168065824 -0.979677856359 0.2005168065824 -0.979677856359 0.0025567267228 -1.517396450e-4
0.708406680000000 0.0022865684179 0.0011613313523 0.2005114938713 -0.979678961341 0.2005114938713 -0.979678961341 0.0025521985958 -1.537851053e-4
0.708406920000000 0.0022816002413 0.0011613966361 0.2005061685648 -0.979680068935 0.2005061685648 -0.979680068935 0.0025476587262 -1.558358553e-4
0.708407160000000 0.0022766191677 0.0011614621018 0.2005008306140 -0.979681179153 0.2005008306140 -0.979681179153 0.0025431070685 -1.578919154e-4
0.708407400000000 0.0022716251468 0.0011615277500 0.2004954799694 -0.979682292004 0.2004954799694 -0.979682292004 0.0025385435766 -1.599533065e-4
0.708407640000000 0.0022666181281 0.0011615935815 0.2004901165816 -0.979683407499 0.2004901165816 -0.979683407499 0.0025339682043 -1.620200492e-4
0.708407880000000 0.0022615980609 0.0011616595971 0.2004847404007 -0.979684525648 0.2004847404007 -0.979684525648 0.0025293809052 -1.640921644e-4
0.708408120000000 0.0022565648940 0.0011617257975 0.2004793513768 -0.979685646461 0.2004793513768 -0.979685646461 0.0025247816327 -1.661696733e-4
0.708408360000000 0.0022515185762 0.0011617921834 0.2004739494594 -0.979686769949 0.2004739494594 -0.979686769949 0.0025201703398 -1.682525968e-4
0.708408600000000 0.0022464590558 0.0011618587556 0.2004685345980 -0.979687896122 0.2004685345980 -0.979687896122 0.0025155469793 -1.703409561e-4
0.708408840000000 0.0022413862811 0.0011619255149 0.2004631067417 -0.979689024991 0.2004631067417 -0.979689024991 0.0025109115039 -1.724347727e-4
0.708409080000000 0.0022363001998 0.0011619924620 0.2004576658395 -0.979690156566 0.2004576658395 -0.979690156566 0.0025062638659 -1.745340680e-4
0.708409320000000 0.0022312007595 0.0011620595976 0.2004522118399 -0.979691290858 0.2004522118399 -0.979691290858 0.0025016040173 -1.766388635e-4
0.708409560000000 0.0022260879077 0.0011621269225 0.2004467446913 -0.979692427878 0.2004467446913 -0.979692427878 0.0024969319101 -1.787491809e-4
0.708409800000000 0.0022209615913 0.0011621944376 0.2004412643418 -0.979693567636 0.2004412643418 -0.979693567636 0.0024922474958 -1.808650419e-4
0.708410040000000 0.0022158217571 0.0011622621436 0.2004357707392 -0.979694710143 0.2004357707392 -0.979694710143 0.0024875507257 -1.829864686e-4
0.708410280000000 0.0022106683515 0.0011623300411 0.2004302638309 -0.979695855410 0.2004302638309 -0.979695855410 0.0024828415509 -1.851134828e-4
0.708410520000000 0.0022055013208 0.0011623981312 0.2004247435643 -0.979697003448 0.2004247435643 -0.979697003448 0.0024781199222 -1.872461067e-4
0.708410760000000 0.0022003206110 0.0011624664144 0.2004192098863 -0.979698154268 0.2004192098863 -0.979698154268 0.0024733857902 -1.893843626e-4
0.708411000000000 0.0021951261675 0.0011625348917 0.2004136627436 -0.979699307881 0.2004136627436 -0.979699307881 0.0024686391051 -1.915282728e-4
0.708411240000000 0.0021899179358 0.0011626035638 0.2004081020825 -0.979700464298 0.2004081020825 -0.979700464298 0.0024638798170 -1.936778598e-4
0.708411480000000 0.0021846958608 0.0011626724316 0.2004025278493 -0.979701623531 0.2004025278493 -0.979701623531 0.0024591078757 -1.958331462e-4
0.708411720000000 0.0021794598875 0.0011627414957 0.2003969399898 -0.979702785590 0.2003969399898 -0.979702785590 0.0024543232307 -1.979941548e-4
0.708411960000000 0.0021742099601 0.0011628107571 0.2003913384494 -0.979703950486 0.2003913384494 -0.979703950486 0.0024495258310 -2.001609083e-4
0.708412200000000 0.0021689460230 0.0011628802165 0.2003857231735 -0.979705118232 0.2003857231735 -0.979705118232 0.0024447156259 -2.023334298e-4
0.708412440000000 0.0021636680199 0.0011629498748 0.2003800941070 -0.979706288838 0.2003800941070 -0.979706288838 0.0024398925638 -2.045117423e-4
0.708412680000000 0.0021583758944 0.0011630197328 0.2003744511946 -0.979707462315 0.2003744511946 -0.979707462315 0.0024350565932 -2.066958690e-4
0.708412920000000 0.0021530695898 0.0011630897912 0.2003687943806 -0.979708638677 0.2003687943806 -0.979708638677 0.0024302076623 -2.088858333e-4
0.708413160000000 0.0021477490490 0.0011631600511 0.2003631236092 -0.979709817933 0.2003631236092 -0.979709817933 0.0024253457189 -2.110816586e-4
0.708413400000000 0.0021424142147 0.0011632305131 0.2003574388240 -0.979711000096 0.2003574388240 -0.979711000096 0.0024204707106 -2.132833686e-4
0.708413640000000 0.0021370650293 0.0011633011782 0.2003517399686 -0.979712185177 0.2003517399686 -0.979712185177 0.0024155825846 -2.154909869e-4
0.708413880000000 0.0021317014348 0.0011633720471 0.2003460269861 -0.979713373188 0.2003460269861 -0.979713373188 0.0024106812879 -2.177045373e-4
0.708414120000000 0.0021263233728 0.0011634431207 0.2003402998194 -0.979714564141 0.2003402998194 -0.979714564141 0.0024057667674 -2.199240439e-4
0.708414360000000 0.0021209307849 0.0011635143999 0.2003345584110 -0.979715758048 0.2003345584110 -0.979715758048 0.0024008389694 -2.221495308e-4
0.708414600000000 0.0021155236121 0.0011635858856 0.2003288027032 -0.979716954920 0.2003288027032 -0.979716954920 0.0023958978400 -2.243810221e-4
0.708414840000000 0.0021101017951 0.0011636575785 0.2003230326379 -0.979718154771 0.2003230326379 -0.979718154771 0.0023909433252 -2.266185422e-4
0.708415080000000 0.0021046652745 0.0011637294797 0.2003172481566 -0.979719357611 0.2003172481566 -0.979719357611 0.0023859753704 -2.288621156e-4
0.708415320000000 0.0020992139903 0.0011638015899 0.2003114492008 -0.979720563453 0.2003114492008 -0.979720563453 0.0023809939210 -2.311117670e-4
0.708415560000000 0.0020937478824 0.0011638739100 0.2003056357114 -0.979721772309 0.2003056357114 -0.979721772309 0.0023759989218 -2.333675211e-4
0.708415800000000 0.0020882668902 0.0011639464409 0.2002998076289 -0.979722984192 0.2002998076289 -0.979722984192 0.0023709903176 -2.356294028e-4
0.708416040000000 0.0020827709529 0.0011640191835 0.2002939648939 -0.979724199114 0.2002939648939 -0.979724199114 0.0023659680528 -2.378974371e-4
0.708416280000000 0.0020772600093 0.0011640921387 0.2002881074462 -0.979725417086 0.2002881074462 -0.979725417086 0.0023609320713 -2.401716492e-4
0.708416520000000 0.0020717339978 0.0011641653074 0.2002822352255 -0.979726638123 0.2002822352255 -0.979726638123 0.0023558823170 -2.424520643e-4
0.708416760000000 0.0020661928567 0.0011642386906 0.2002763481712 -0.979727862236 0.2002763481712 -0.979727862236 0.0023508187332 -2.447387080e-4
0.708417000000000 0.0020606365236 0.0011643122890 0.2002704462223 -0.979729089438 0.2002704462223 -0.979729089438 0.0023457412632 -2.470316058e-4
0.708417240000000 0.0020550649361 0.0011643861036 0.2002645293175 -0.979730319741 0.2002645293175 -0.979730319741 0.0023406498497 -2.493307834e-4
0.708417480000000 0.0020494780313 0.0011644601354 0.2002585973951 -0.979731553159 0.2002585973951 -0.979731553159 0.0023355444353 -2.516362668e-4
0.708417720000000 0.0020438757460 0.0011645343853 0.2002526503931 -0.979732789704 0.2002526503931 -0.979732789704 0.0023304249621 -2.539480818e-4
0.708417960000000 0.0020382580165 0.0011646088542 0.2002466882491 -0.979734029389 0.2002466882491 -0.979734029389 0.0023252913720 -2.562662546e-4
0.708418200000000 0.0020326247790 0.0011646835430 0.2002407109006 -0.979735272227 0.2002407109006 -0.979735272227 0.0023201436066 -2.585908116e-4
0.708418440000000 0.0020269759691 0.0011647584527 0.2002347182844 -0.979736518231 0.2002347182844 -0.979736518231 0.0023149816071 -2.609217791e-4
0.708418680000000 0.0020213115223 0.0011648335842 0.2002287103373 -0.979737767414 0.2002287103373 -0.979737767414 0.0023098053144 -2.632591838e-4
0.708418920000000 0.0020156313735 0.0011649089385 0.2002226869953 -0.979739019790 0.2002226869953 -0.979739019790 0.0023046146690 -2.656030523e-4
0.708419160000000 0.0020099354574 0.0011649845165 0.2002166481946 -0.979740275371 0.2002166481946 -0.979740275371 0.0022994096113 -2.679534116e-4
0.708419400000000 0.0020042237082 0.0011650603192 0.2002105938705 -0.979741534171 0.2002105938705 -0.979741534171 0.0022941900812 -2.703102887e-4
0.708419640000000 0.0019984960599 0.0011651363476 0.2002045239584 -0.979742796204 0.2002045239584 -0.979742796204 0.0022889560182 -2.726737107e-4
0.708419880000000 0.0019927524461 0.0011652126026 0.2001984383931 -0.979744061482 0.2001984383931 -0.979744061482 0.0022837073615 -2.750437050e-4
0.708420120000000 0.0019869927998 0.0011652890853 0.2001923371090 -0.979745330020 0.2001923371090 -0.979745330020 0.0022784440501 -2.774202991e-4
0.708420360000000 0.0019812170539 0.0011653657965 0.2001862200402 -0.979746601831 0.2001862200402 -0.979746601831 0.0022731660225 -2.798035206e-4
0.708420600000000 0.0019754251409 0.0011654427374 0.2001800871206 -0.979747876929 0.2001800871206 -0.979747876929 0.0022678732170 -2.821933972e-4
0.708420840000000 0.0019696169927 0.0011655199088 0.2001739382834 -0.979749155327 0.2001739382834 -0.979749155327 0.0022625655715 -2.845899570e-4
0.708421080000000 0.0019637925410 0.0011655973118 0.2001677734617 -0.979750437040 0.2001677734617 -0.979750437040 0.0022572430233 -2.869932280e-4
0.708421320000000 0.0019579517172 0.0011656749475 0.2001615925880 -0.979751722081 0.2001615925880 -0.979751722081 0.0022519055098 -2.894032385e-4
0.708421560000000 0.0019520944520 0.0011657528167 0.2001553955947 -0.979753010465 0.2001553955947 -0.979753010465 0.0022465529678 -2.918200169e-4
0.708421800000000 0.0019462206761 0.0011658309206 0.2001491824136 -0.979754302204 0.2001491824136 -0.979754302204 0.0022411853336 -2.942435918e-4
0.708422040000000 0.0019403303195 0.0011659092602 0.2001429529761 -0.979755597315 0.2001429529761 -0.979755597315 0.0022358025435 -2.966739919e-4
0.708422280000000 0.0019344233120 0.0011659878365 0.2001367072133 -0.979756895810 0.2001367072133 -0.979756895810 0.0022304045331 -2.991112462e-4
0.708422520000000 0.0019284995828 0.0011660666505 0.2001304450560 -0.979758197705 0.2001304450560 -0.979758197705 0.0022249912378 -3.015553836e-4
0.708422760000000 0.0019225590609 0.0011661457032 0.2001241664344 -0.979759503013 0.2001241664344 -0.979759503013 0.0022195625927 -3.040064334e-4
0.708423000000000 0.0019166016748 0.0011662249958 0.2001178712785 -0.979760811749 0.2001178712785 -0.979760811749 0.0022141185323 -3.064644250e-4
0.708423240000000 0.0019106273527 0.0011663045293 0.2001115595177 -0.979762123929 0.2001115595177 -0.979762123929 0.0022086589911 -3.089293880e-4
0.708423480000000 0.0019046360221 0.0011663843048 0.2001052310811 -0.979763439565 0.2001052310811 -0.979763439565 0.0022031839027 -3.114013521e-4
0.708423720000000 0.0018986276105 0.0011664643232 0.2000988858975 -0.979764758674 0.2000988858975 -0.979764758674 0.0021976932009 -3.138803472e-4
0.708423960000000 0.0018926020446 0.0011665445858 0.2000925238952 -0.979766081269 0.2000925238952 -0.979766081269 0.0021921868187 -3.163664034e-4
0.708424200000000 0.0018865592510 0.0011666250935 0.2000861450021 -0.979767407367 0.2000861450021 -0.979767407367 0.0021866646889 -3.188595508e-4
0.708424440000000 0.0018804991556 0.0011667058475 0.2000797491455 -0.979768736981 0.2000797491455 -0.979768736981 0.0021811267438 -3.213598200e-4
0.708424680000000 0.0018744216841 0.0011667868488 0.2000733362527 -0.979770070127 0.2000733362527 -0.979770070127 0.0021755729155 -3.238672415e-4
0.708424920000000 0.0018683267617 0.0011668680986 0.2000669062501 -0.979771406821 0.2000669062501 -0.979771406821 0.0021700031355 -3.263818460e-4
0.708425160000000 0.0018622143131 0.0011669495980 0.2000604590641 -0.979772747077 0.2000604590641 -0.979772747077 0.0021644173351 -3.289036646e-4
0.708425400000000 0.0018560842626 0.0011670313480 0.2000539946204 -0.979774090910 0.2000539946204 -0.979774090910 0.0021588154450 -3.314327283e-4
0.708425640000000 0.0018499365342 0.0011671133499 0.2000475128444 -0.979775438337 0.2000475128444 -0.979775438337 0.0021531973957 -3.339690684e-4
0.708425880000000 0.0018437710512 0.0011671956046 0.2000410136611 -0.979776789373 0.2000410136611 -0.979776789373 0.0021475631171 -3.365127164e-4
0.708426120000000 0.0018375877367 0.0011672781134 0.2000344969948 -0.979778144033 0.2000344969948 -0.979778144033 0.0021419125389 -3.390637040e-4
0.708426360000000 0.0018313865132 0.0011673608775 0.2000279627698 -0.979779502333 0.2000279627698 -0.979779502333 0.0021362455903 -3.416220630e-4
0.708426600000000 0.0018251673028 0.0011674438978 0.2000214109096 -0.979780864288 0.2000214109096 -0.979780864288 0.0021305622000 -3.441878254e-4
0.708426840000000 0.0018189300272 0.0011675271757 0.2000148413373 -0.979782229916 0.2000148413373 -0.979782229916 0.0021248622964 -3.467610234e-4
0.708427080000000 0.0018126746076 0.0011676107122 0.2000082539758 -0.979783599231 0.2000082539758 -0.979783599231 0.0021191458075 -3.493416895e-4
0.708427320000000 0.0018064009648 0.0011676945086 0.2000016487473 -0.979784972250 0.2000016487473 -0.979784972250 0.0021134126608 -3.519298563e-4
0.708427560000000 0.0018001090189 0.0011677785660 0.1999950255736 -0.979786348989 0.1999950255736 -0.979786348989 0.0021076627834 -3.545255564e-4
0.708427800000000 0.0017937986899 0.0011678628856 0.1999883843761 -0.979787729464 0.1999883843761 -0.979787729464 0.0021018961019 -3.571288229e-4
0.708428040000000 0.0017874698970 0.0011679474685 0.1999817250757 -0.979789113691 0.1999817250757 -0.979789113691 0.0020961125427 -3.597396890e-4
0.708428280000000 0.0017811225591 0.0011680323161 0.1999750475929 -0.979790501688 0.1999750475929 -0.979790501688 0.0020903120316 -3.623581879e-4
0.708428520000000 0.0017747565947 0.0011681174294 0.1999683518476 -0.979791893470 0.1999683518476 -0.979791893470 0.0020844944939 -3.649843533e-4
0.708428760000000 0.0017683719216 0.0011682028097 0.1999616377593 -0.979793289055 0.1999616377593 -0.979793289055 0.0020786598547 -3.676182189e-4